 Gaussian 03, Revision B.05,
 Gaussian 03:  x86_64-Linux-G03RevB.05  8-Nov-2003

 ------------------------------------------
 # b3lyp/6-31g* punch=mo iop(3/33=1) nosymm
 ------------------------------------------

 04/10/07: Geometry from napthalene_b3lyp_of.log and reorientated to pu
 t long axi geometric centre on 3
 ----------------------------------------------------------------------
 Symbolic Z-matrix:
 Charge =  0 Multiplicity = 1

                          Input orientation:
 ---------------------------------------------------------------------
 Center     Atomic     Atomic              Coordinates (Angstroms)
 Number     Number      Type              X           Y           Z
 ---------------------------------------------------------------------
    1          6             0       -2.433600   -0.708480    3.000000
    2          6             0       -1.244780   -1.402580    3.000000
    3          6             0       -0.000002   -0.716892    3.000000
    4          6             0        0.000002    0.716891    3.000000
    5          6             0       -1.244760    1.402570    3.000000
    6          6             0       -2.433600    0.708481    3.000000
    7          1             0        1.242040   -2.490270    3.000000
    8          1             0       -3.378340   -1.245590    3.000000
    9          1             0       -1.242040   -2.490280    3.000000
   10          6             0        1.244760   -1.402580    3.000000
   11          6             0        1.244780    1.402580    3.000000
   12          1             0       -1.242040    2.490270    3.000000
   13          1             0       -3.378330    1.245590    3.000000
   14          6             0        2.433600    0.708481    3.000000
   15          6             0        2.433590   -0.708480    3.000000
   16          1             0        1.242030    2.490280    3.000000
   17          1             0        3.378350    1.245590    3.000000
   18          1             0        3.378340   -1.245590    3.000000
 ---------------------------------------------------------------------

 SCF Done:  E(RB+HF-LYP) =  -385.892784492     A.U. after    7 cycles

 Alpha  occ. eigenvalues --  -10.19554 -10.19513 -10.18962 -10.18961 -10.18924
 Alpha  occ. eigenvalues --  -10.18924 -10.18865 -10.18863 -10.18856 -10.18855
 Alpha  occ. eigenvalues --   -0.86858  -0.81613  -0.76906  -0.73647  -0.71501
 Alpha  occ. eigenvalues --   -0.62192  -0.60731  -0.59228  -0.51090  -0.50813
 Alpha  occ. eigenvalues --   -0.48958  -0.44599  -0.43624  -0.41479  -0.41180
 Alpha  occ. eigenvalues --   -0.39819  -0.38543  -0.36662  -0.33558  -0.32798
 Alpha  occ. eigenvalues --   -0.32306  -0.28119  -0.24021  -0.21270
 Alpha virt. eigenvalues --   -0.03523  -0.00540   0.03590   0.09501   0.10301
 Alpha virt. eigenvalues --    0.11293   0.12176   0.16607   0.16773   0.17453
 Alpha virt. eigenvalues --    0.18280   0.20400   0.20597   0.24690   0.28424

 Mulliken atomic charges:
              1
     1  C   -0.134986
     2  C   -0.190965
     3  C    0.134580
     4  C    0.134591
     5  C   -0.190983
     6  C   -0.134980
     7  H    0.129103
     8  H    0.129560
     9  H    0.129103
    10  C   -0.190975
    11  C   -0.190967
    12  H    0.129102
    13  H    0.129561
    14  C   -0.134984
    15  C   -0.134985
    16  H    0.129103
    17  H    0.129561
    18  H    0.129560
 Sum of Mulliken charges=   0.00000

 Dipole moment (field-independent basis, Debye):
    X=     0.0000    Y=     0.0000    Z=     0.0000  Tot=     0.0000
 Quadrupole moment (field-independent basis, Debye-Ang):
   XX=   -50.6689   YY=   -51.0381   ZZ=   -62.1929
   XY=     0.0000   XZ=     0.0000   YZ=     0.0000

 Normal termination of Gaussian 03 at Wed Oct 10 10:15:45 2007.
