 Gaussian 03, Revision B.05,
 Gaussian 03:  x86_64-Linux-G03RevB.05  8-Nov-2003

 -----------------------------------
 # zindo punch=mo iop(3/33=1) nosymm
 -----------------------------------

 04/10/07: Geometry from napthalene_b3lyp_of.log and reorientated to pu
 t long axi geometric centre on origin.
 ----------------------------------------------------------------------
 Symbolic Z-matrix:
 Charge =  0 Multiplicity = 1

                          Input orientation:
 ---------------------------------------------------------------------
 Center     Atomic     Atomic              Coordinates (Angstroms)
 Number     Number      Type              X           Y           Z
 ---------------------------------------------------------------------
    1          6             0       -2.433600   -0.708480    0.000000
    2          6             0       -1.244780   -1.402580    0.000000
    3          6             0       -0.000002   -0.716892    0.000000
    4          6             0        0.000002    0.716891    0.000000
    5          6             0       -1.244760    1.402570    0.000000
    6          6             0       -2.433600    0.708481    0.000000
    7          1             0        1.242040   -2.490270    0.000000
    8          1             0       -3.378340   -1.245590    0.000000
    9          1             0       -1.242040   -2.490280    0.000000
   10          6             0        1.244760   -1.402580    0.000000
   11          6             0        1.244780    1.402580    0.000000
   12          1             0       -1.242040    2.490270    0.000000
   13          1             0       -3.378330    1.245590    0.000000
   14          6             0        2.433600    0.708481    0.000000
   15          6             0        2.433590   -0.708480    0.000000
   16          1             0        1.242030    2.490280    0.000000
   17          1             0        3.378350    1.245590    0.000000
   18          1             0        3.378340   -1.245590    0.000000
   19          6             0       -2.433600   -0.708480    3.500000
   20          6             0       -1.244780   -1.402580    3.500000
   21          6             0       -0.000002   -0.716892    3.500000
   22          6             0        0.000002    0.716891    3.500000
   23          6             0       -1.244760    1.402570    3.500000
   24          6             0       -2.433600    0.708481    3.500000
   25          1             0        1.242040   -2.490270    3.500000
   26          1             0       -3.378340   -1.245590    3.500000
   27          1             0       -1.242040   -2.490280    3.500000
   28          6             0        1.244760   -1.402580    3.500000
   29          6             0        1.244780    1.402580    3.500000
   30          1             0       -1.242040    2.490270    3.500000
   31          1             0       -3.378330    1.245590    3.500000
   32          6             0        2.433600    0.708481    3.500000
   33          6             0        2.433590   -0.708480    3.500000
   34          1             0        1.242030    2.490280    3.500000
   35          1             0        3.378350    1.245590    3.500000
   36          1             0        3.378340   -1.245590    3.500000
 ---------------------------------------------------------------------

 SCF Done:  E(RHF) =  -123.355168908     A.U. after   11 cycles

 Excitation energies and oscillator strengths:

 Excited state symmetry could not be determined.
 Excited State   1:   Singlet-?Sym    3.6304 eV  341.51 nm  f=0.0000
      45 -> 50        -0.18306
      46 -> 52         0.20962
      47 -> 49        -0.44136
      48 -> 51         0.46525
 This state for optimization and/or second-order correction.
 Copying the excited state density for this state as the 1-particle RhoCI density.

 Excited state symmetry could not be determined.
 Excited State   2:   Singlet-?Sym    3.6961 eV  335.44 nm  f=0.0000
      46 -> 50         0.15759
      47 -> 51         0.14903
      48 -> 49         0.66126

 Excited state symmetry could not be determined.
 Excited State   3:   Singlet-?Sym    3.8697 eV  320.40 nm  f=0.0044
      45 -> 49        -0.26469
      46 -> 51         0.29258
      47 -> 50        -0.38459
      48 -> 52         0.42841

 Alpha  occ. eigenvalues --   -1.68413  -1.63780  -1.51789  -1.48164  -1.31313
 Alpha  occ. eigenvalues --   -1.28228  -1.20707  -1.18218  -1.15344  -1.13058
 Alpha  occ. eigenvalues --   -0.99231  -0.97685  -0.97634  -0.96088  -0.96038
 Alpha  occ. eigenvalues --   -0.94743  -0.82184  -0.81052  -0.74213  -0.73466
 Alpha  occ. eigenvalues --   -0.71647  -0.70771  -0.61947  -0.61468  -0.61194
 Alpha  occ. eigenvalues --   -0.60969  -0.57638  -0.55487  -0.55020  -0.55016
 Alpha  occ. eigenvalues --   -0.54701  -0.53694  -0.53207  -0.49172  -0.48798
 Alpha  occ. eigenvalues --   -0.48472  -0.46605  -0.43952  -0.43928  -0.43695
 Alpha  occ. eigenvalues --   -0.43635  -0.40008  -0.39956  -0.34802  -0.33924
 Alpha  occ. eigenvalues --   -0.31028  -0.29729  -0.27337
 Alpha virt. eigenvalues --   -0.01381   0.00459   0.00977   0.02462   0.04677
 Alpha virt. eigenvalues --    0.05919   0.07936   0.08863   0.09573   0.09631
 Alpha virt. eigenvalues --    0.12372   0.12473   0.12527   0.12895   0.13005

 Mulliken atomic charges:
              1
     1  C   -0.034485
     2  C   -0.037037
     3  C    0.015744
     4  C    0.015744
     5  C   -0.037034
     6  C   -0.034490
     7  H    0.031545
     8  H    0.032106
     9  H    0.031544
    10  C   -0.037035
    11  C   -0.037035
    12  H    0.031541
    13  H    0.032109
    14  C   -0.034485
    15  C   -0.034487
    16  H    0.031544
    17  H    0.032106
    18  H    0.032105
    19  C   -0.034485
    20  C   -0.037037
    21  C    0.015744
    22  C    0.015744
    23  C   -0.037034
    24  C   -0.034490
    25  H    0.031545
    26  H    0.032106
    27  H    0.031544
    28  C   -0.037035
    29  C   -0.037035
    30  H    0.031541
    31  H    0.032109
    32  C   -0.034485
    33  C   -0.034487
    34  H    0.031544
    35  H    0.032106
    36  H    0.032105
 Sum of Mulliken charges=   0.00000

 Dipole moment (field-independent basis, Debye):
    X=     0.0009    Y=     0.0003    Z=  -516.3567  Tot=   516.3567
 Quadrupole moment (field-independent basis, Debye-Ang):
   XX= -1240.2688   YY=  -646.2600   ZZ= -2002.5159
   XY=    -0.0017   XZ=     0.0015   YZ=     0.0006

 Normal termination of Gaussian 03 at Wed Oct 10 10:14:39 2007.
