 Gaussian 03, Revision B.05,
 Gaussian 03:  x86_64-Linux-G03RevB.05  8-Nov-2003

 -----------------------------------
 # zindo punch=mo iop(3/33=1) nosymm
 -----------------------------------

 04/10/07: Geometry from napthalene_b3lyp_of.log and reorientated to pu
 t long axi geometric centre on 3
 ----------------------------------------------------------------------
 Symbolic Z-matrix:
 Charge =  0 Multiplicity = 1

                          Input orientation:
 ---------------------------------------------------------------------
 Center     Atomic     Atomic              Coordinates (Angstroms)
 Number     Number      Type              X           Y           Z
 ---------------------------------------------------------------------
    1          6             0       -2.433600   -0.708480    3.000000
    2          6             0       -1.244780   -1.402580    3.000000
    3          6             0       -0.000002   -0.716892    3.000000
    4          6             0        0.000002    0.716891    3.000000
    5          6             0       -1.244760    1.402570    3.000000
    6          6             0       -2.433600    0.708481    3.000000
    7          1             0        1.242040   -2.490270    3.000000
    8          1             0       -3.378340   -1.245590    3.000000
    9          1             0       -1.242040   -2.490280    3.000000
   10          6             0        1.244760   -1.402580    3.000000
   11          6             0        1.244780    1.402580    3.000000
   12          1             0       -1.242040    2.490270    3.000000
   13          1             0       -3.378330    1.245590    3.000000
   14          6             0        2.433600    0.708481    3.000000
   15          6             0        2.433590   -0.708480    3.000000
   16          1             0        1.242030    2.490280    3.000000
   17          1             0        3.378350    1.245590    3.000000
   18          1             0        3.378340   -1.245590    3.000000
 ---------------------------------------------------------------------

 SCF Done:  E(RHF) =  -61.6771676321     A.U. after   11 cycles

 Excitation energies and oscillator strengths:

 Excited state symmetry could not be determined.
 Excited State   1:   Singlet-?Sym    3.9313 eV  315.37 nm  f=0.0038
      23 -> 25        -0.46114
      24 -> 26         0.52389
 This state for optimization and/or second-order correction.
 Copying the excited state density for this state as the 1-particle RhoCI density.

 Excited state symmetry could not be determined.
 Excited State   2:   Singlet-?Sym    4.1818 eV  296.48 nm  f=0.1461
      23 -> 26         0.24907
      24 -> 25         0.65116

 Excited state symmetry could not be determined.
 Excited State   3:   Singlet-?Sym    5.2674 eV  235.38 nm  f=1.6500
      23 -> 25         0.52107
      24 -> 26         0.45360

 Alpha  occ. eigenvalues --   -1.66140  -1.50042  -1.29850  -1.19551  -1.14289
 Alpha  occ. eigenvalues --   -0.98535  -0.96969  -0.95523  -0.81721  -0.73948
 Alpha  occ. eigenvalues --   -0.71311  -0.61675  -0.61332  -0.55358  -0.54976
 Alpha  occ. eigenvalues --   -0.53552  -0.53257  -0.49088  -0.43923  -0.43906
 Alpha  occ. eigenvalues --   -0.43442  -0.37560  -0.31971  -0.29315
 Alpha virt. eigenvalues --   -0.00582   0.01594   0.05174   0.08287   0.09487
 Alpha virt. eigenvalues --    0.12396   0.12510   0.12918   0.13830   0.15208
 Alpha virt. eigenvalues --    0.19920   0.20062   0.20199   0.22748   0.25758

 Mulliken atomic charges:
              1
     1  C   -0.034714
     2  C   -0.037395
     3  C    0.014764
     4  C    0.014764
     5  C   -0.037392
     6  C   -0.034719
     7  H    0.032073
     8  H    0.032655
     9  H    0.032072
    10  C   -0.037393
    11  C   -0.037393
    12  H    0.032070
    13  H    0.032658
    14  C   -0.034714
    15  C   -0.034717
    16  H    0.032072
    17  H    0.032655
    18  H    0.032654
 Sum of Mulliken charges=   0.00000

 Dipole moment (field-independent basis, Debye):
    X=     0.0004    Y=     0.0002    Z=  -442.5787  Tot=   442.5787
 Quadrupole moment (field-independent basis, Debye-Ang):
   XX=  -620.0348   YY=  -323.0758   ZZ= -1425.3861
   XY=    -0.0008   XZ=     0.0013   YZ=     0.0005

 Normal termination of Gaussian 03 at Wed Oct 10 10:14:34 2007.
