 Gaussian 03, Revision B.05,
 Gaussian 03:  x86_64-Linux-G03RevB.05  8-Nov-2003

 -----------------------------------
 # zindo punch=mo iop(3/33=1) nosymm
 -----------------------------------

 04/10/07: Geometry from napthalene_b3lyp_of.log and reorientated to pu
 t long axi geometric centre on origin.
 ----------------------------------------------------------------------
 Symbolic Z-matrix:
 Charge =  0 Multiplicity = 1

                          Input orientation:
 ---------------------------------------------------------------------
 Center     Atomic     Atomic              Coordinates (Angstroms)
 Number     Number      Type              X           Y           Z
 ---------------------------------------------------------------------
    1          6             0       -2.433600   -0.708480    0.000000
    2          6             0       -1.244780   -1.402580    0.000000
    3          6             0       -0.000002   -0.716892    0.000000
    4          6             0        0.000002    0.716891    0.000000
    5          6             0       -1.244760    1.402570    0.000000
    6          6             0       -2.433600    0.708481    0.000000
    7          1             0        1.242040   -2.490270    0.000000
    8          1             0       -3.378340   -1.245590    0.000000
    9          1             0       -1.242040   -2.490280    0.000000
   10          6             0        1.244760   -1.402580    0.000000
   11          6             0        1.244780    1.402580    0.000000
   12          1             0       -1.242040    2.490270    0.000000
   13          1             0       -3.378330    1.245590    0.000000
   14          6             0        2.433600    0.708481    0.000000
   15          6             0        2.433590   -0.708480    0.000000
   16          1             0        1.242030    2.490280    0.000000
   17          1             0        3.378350    1.245590    0.000000
   18          1             0        3.378340   -1.245590    0.000000
   19          6             0       -2.433600   -0.708480    3.000000
   20          6             0       -1.244780   -1.402580    3.000000
   21          6             0       -0.000002   -0.716892    3.000000
   22          6             0        0.000002    0.716891    3.000000
   23          6             0       -1.244760    1.402570    3.000000
   24          6             0       -2.433600    0.708481    3.000000
   25          1             0        1.242040   -2.490270    3.000000
   26          1             0       -3.378340   -1.245590    3.000000
   27          1             0       -1.242040   -2.490280    3.000000
   28          6             0        1.244760   -1.402580    3.000000
   29          6             0        1.244780    1.402580    3.000000
   30          1             0       -1.242040    2.490270    3.000000
   31          1             0       -3.378330    1.245590    3.000000
   32          6             0        2.433600    0.708481    3.000000
   33          6             0        2.433590   -0.708480    3.000000
   34          1             0        1.242030    2.490280    3.000000
   35          1             0        3.378350    1.245590    3.000000
   36          1             0        3.378340   -1.245590    3.000000
 ---------------------------------------------------------------------

 SCF Done:  E(RHF) =  -123.361357083     A.U. after   11 cycles

 Excitation energies and oscillator strengths:

 Excited state symmetry could not be determined.
 Excited State   1:   Singlet-?Sym    2.4135 eV  513.70 nm  f=0.0000
      47 -> 50         0.12624
      48 -> 49         0.68811
 This state for optimization and/or second-order correction.
 Copying the excited state density for this state as the 1-particle RhoCI density.

 Excited state symmetry could not be determined.
 Excited State   2:   Singlet-?Sym    2.4758 eV  500.78 nm  f=0.0000
      47 -> 49         0.54462
      48 -> 50        -0.42525

 Excited state symmetry could not be determined.
 Excited State   3:   Singlet-?Sym    3.0997 eV  399.98 nm  f=0.0000
      47 -> 49         0.43513
      48 -> 50         0.54875

 Alpha  occ. eigenvalues --   -1.72542  -1.60384  -1.55061  -1.45358  -1.34039
 Alpha  occ. eigenvalues --   -1.25839  -1.22973  -1.17422  -1.16191  -1.11177
 Alpha  occ. eigenvalues --   -1.00677  -0.99106  -0.97368  -0.96214  -0.94605
 Alpha  occ. eigenvalues --   -0.93473  -0.83193  -0.80014  -0.74943  -0.72692
 Alpha  occ. eigenvalues --   -0.72473  -0.69928  -0.63374  -0.62609  -0.61950
 Alpha  occ. eigenvalues --   -0.60490  -0.60415  -0.55923  -0.55361  -0.54525
 Alpha  occ. eigenvalues --   -0.54294  -0.54143  -0.52711  -0.51026  -0.49528
 Alpha  occ. eigenvalues --   -0.48390  -0.44241  -0.44167  -0.43651  -0.43391
 Alpha  occ. eigenvalues --   -0.43280  -0.41862  -0.37001  -0.34942  -0.33794
 Alpha  occ. eigenvalues --   -0.30694  -0.26295  -0.24271
 Alpha virt. eigenvalues --   -0.02923  -0.00314   0.02161   0.03580   0.03888
 Alpha virt. eigenvalues --    0.07053   0.07132   0.09536   0.09725   0.09830
 Alpha virt. eigenvalues --    0.11830   0.12443   0.12609   0.12984   0.13143

 Mulliken atomic charges:
              1
     1  C   -0.034331
     2  C   -0.036941
     3  C    0.015524
     4  C    0.015524
     5  C   -0.036939
     6  C   -0.034335
     7  H    0.031463
     8  H    0.032048
     9  H    0.031462
    10  C   -0.036940
    11  C   -0.036940
    12  H    0.031460
    13  H    0.032052
    14  C   -0.034331
    15  C   -0.034333
    16  H    0.031462
    17  H    0.032048
    18  H    0.032047
    19  C   -0.034331
    20  C   -0.036941
    21  C    0.015524
    22  C    0.015524
    23  C   -0.036939
    24  C   -0.034335
    25  H    0.031463
    26  H    0.032048
    27  H    0.031462
    28  C   -0.036940
    29  C   -0.036940
    30  H    0.031460
    31  H    0.032052
    32  C   -0.034331
    33  C   -0.034333
    34  H    0.031462
    35  H    0.032048
    36  H    0.032047
 Sum of Mulliken charges=   0.00000

 Dipole moment (field-independent basis, Debye):
    X=     0.0009    Y=     0.0003    Z=  -442.6507  Tot=   442.6507
 Quadrupole moment (field-independent basis, Debye-Ang):
   XX= -1240.4560   YY=  -646.3665   ZZ= -1523.0684
   XY=    -0.0017   XZ=     0.0013   YZ=     0.0005

 Normal termination of Gaussian 03 at Wed Oct 10 10:14:44 2007.
