 Gaussian 03, Revision B.05,
 Gaussian 03:  x86_64-Linux-G03RevB.05  8-Nov-2003

 -----------------------------------
 # zindo punch=mo iop(3/33=1) nosymm
 -----------------------------------

 04/10/07: Geometry from napthalene_b3lyp_of.log and reorientated to pu
 t long axi geometric centre on origin.
 ----------------------------------------------------------------------
 Symbolic Z-matrix:
 Charge =  0 Multiplicity = 1

                          Input orientation:
 ---------------------------------------------------------------------
 Center     Atomic     Atomic              Coordinates (Angstroms)
 Number     Number      Type              X           Y           Z
 ---------------------------------------------------------------------
    1          6             0       -2.433600   -0.708480    0.000000
    2          6             0       -1.244780   -1.402580    0.000000
    3          6             0       -0.000002   -0.716892    0.000000
    4          6             0        0.000002    0.716891    0.000000
    5          6             0       -1.244760    1.402570    0.000000
    6          6             0       -2.433600    0.708481    0.000000
    7          1             0        1.242040   -2.490270    0.000000
    8          1             0       -3.378340   -1.245590    0.000000
    9          1             0       -1.242040   -2.490280    0.000000
   10          6             0        1.244760   -1.402580    0.000000
   11          6             0        1.244780    1.402580    0.000000
   12          1             0       -1.242040    2.490270    0.000000
   13          1             0       -3.378330    1.245590    0.000000
   14          6             0        2.433600    0.708481    0.000000
   15          6             0        2.433590   -0.708480    0.000000
   16          1             0        1.242030    2.490280    0.000000
   17          1             0        3.378350    1.245590    0.000000
   18          1             0        3.378340   -1.245590    0.000000
   19          6             0       -2.433600   -0.708480    4.500000
   20          6             0       -1.244780   -1.402580    4.500000
   21          6             0       -0.000002   -0.716892    4.500000
   22          6             0        0.000002    0.716891    4.500000
   23          6             0       -1.244760    1.402570    4.500000
   24          6             0       -2.433600    0.708481    4.500000
   25          1             0        1.242040   -2.490270    4.500000
   26          1             0       -3.378340   -1.245590    4.500000
   27          1             0       -1.242040   -2.490280    4.500000
   28          6             0        1.244760   -1.402580    4.500000
   29          6             0        1.244780    1.402580    4.500000
   30          1             0       -1.242040    2.490270    4.500000
   31          1             0       -3.378330    1.245590    4.500000
   32          6             0        2.433600    0.708481    4.500000
   33          6             0        2.433590   -0.708480    4.500000
   34          1             0        1.242030    2.490280    4.500000
   35          1             0        3.378350    1.245590    4.500000
   36          1             0        3.378340   -1.245590    4.500000
 ---------------------------------------------------------------------

 SCF Done:  E(RHF) =  -123.354286995     A.U. after   11 cycles

 Excitation energies and oscillator strengths:

 Excited state symmetry could not be determined.
 Excited State   1:   Singlet-?Sym    3.9274 eV  315.69 nm  f=0.0000
      45 -> 50        -0.30863
      46 -> 49        -0.33749
      47 -> 52         0.35760
      48 -> 51         0.38739
 This state for optimization and/or second-order correction.
 Copying the excited state density for this state as the 1-particle RhoCI density.

 Excited state symmetry could not be determined.
 Excited State   2:   Singlet-?Sym    3.9312 eV  315.39 nm  f=0.0056
      45 -> 49        -0.32216
      46 -> 50        -0.33511
      47 -> 51         0.36085
      48 -> 52         0.37527

 Excited state symmetry could not be determined.
 Excited State   3:   Singlet-?Sym    4.1493 eV  298.81 nm  f=0.0000
      45 -> 52         0.15406
      46 -> 51         0.16565
      47 -> 50         0.43123
      48 -> 49         0.49920

 Alpha  occ. eigenvalues --   -1.66331  -1.65789  -1.50172  -1.49761  -1.29953
 Alpha  occ. eigenvalues --   -1.29593  -1.19613  -1.19336  -1.14343  -1.14087
 Alpha  occ. eigenvalues --   -0.98548  -0.98374  -0.96987  -0.96798  -0.95515
 Alpha  occ. eigenvalues --   -0.95379  -0.81711  -0.81586  -0.73911  -0.73837
 Alpha  occ. eigenvalues --   -0.71285  -0.71194  -0.61646  -0.61559  -0.61280
 Alpha  occ. eigenvalues --   -0.61231  -0.55310  -0.55259  -0.54912  -0.54885
 Alpha  occ. eigenvalues --   -0.53783  -0.53509  -0.53455  -0.52565  -0.49037
 Alpha  occ. eigenvalues --   -0.48998  -0.43858  -0.43847  -0.43837  -0.43812
 Alpha  occ. eigenvalues --   -0.43788  -0.42944  -0.37795  -0.37164  -0.32134
 Alpha  occ. eigenvalues --   -0.31646  -0.29450  -0.29027
 Alpha virt. eigenvalues --   -0.00600  -0.00410   0.01600   0.01748   0.05193
 Alpha virt. eigenvalues --    0.05317   0.08319   0.08404   0.09562   0.09568
 Alpha virt. eigenvalues --    0.12465   0.12471   0.12570   0.12613   0.12992

 Mulliken atomic charges:
              1
     1  C   -0.034657
     2  C   -0.037185
     3  C    0.015414
     4  C    0.015414
     5  C   -0.037183
     6  C   -0.034662
     7  H    0.031798
     8  H    0.032339
     9  H    0.031797
    10  C   -0.037183
    11  C   -0.037184
    12  H    0.031795
    13  H    0.032342
    14  C   -0.034657
    15  C   -0.034660
    16  H    0.031797
    17  H    0.032339
    18  H    0.032338
    19  C   -0.034657
    20  C   -0.037185
    21  C    0.015414
    22  C    0.015414
    23  C   -0.037183
    24  C   -0.034662
    25  H    0.031798
    26  H    0.032339
    27  H    0.031797
    28  C   -0.037183
    29  C   -0.037184
    30  H    0.031795
    31  H    0.032342
    32  C   -0.034657
    33  C   -0.034660
    34  H    0.031797
    35  H    0.032339
    36  H    0.032338
 Sum of Mulliken charges=   0.00000

 Dipole moment (field-independent basis, Debye):
    X=     0.0009    Y=     0.0003    Z=  -663.8719  Tot=   663.8719
 Quadrupole moment (field-independent basis, Debye-Ang):
   XX= -1240.1783   YY=  -646.1988   ZZ= -3182.7234
   XY=    -0.0017   XZ=     0.0020   YZ=     0.0007

 Normal termination of Gaussian 03 at Wed Oct 10 10:14:52 2007.
