 Gaussian 03, Revision B.05,
 Gaussian 03:  x86_64-Linux-G03RevB.05  8-Nov-2003

 -----------------------------------
 # zindo punch=mo iop(3/33=1) nosymm
 -----------------------------------

 04/10/07: Geometry from napthalene_b3lyp_of.log and reorientated to pu
 t long axi geometric centre on origin.
 ----------------------------------------------------------------------
 Symbolic Z-matrix:
 Charge =  0 Multiplicity = 1

                          Input orientation:
 ---------------------------------------------------------------------
 Center     Atomic     Atomic              Coordinates (Angstroms)
 Number     Number      Type              X           Y           Z
 ---------------------------------------------------------------------
    1          6             0       -2.433600   -0.708480    0.000000
    2          6             0       -1.244780   -1.402580    0.000000
    3          6             0       -0.000002   -0.716892    0.000000
    4          6             0        0.000002    0.716891    0.000000
    5          6             0       -1.244760    1.402570    0.000000
    6          6             0       -2.433600    0.708481    0.000000
    7          1             0        1.242040   -2.490270    0.000000
    8          1             0       -3.378340   -1.245590    0.000000
    9          1             0       -1.242040   -2.490280    0.000000
   10          6             0        1.244760   -1.402580    0.000000
   11          6             0        1.244780    1.402580    0.000000
   12          1             0       -1.242040    2.490270    0.000000
   13          1             0       -3.378330    1.245590    0.000000
   14          6             0        2.433600    0.708481    0.000000
   15          6             0        2.433590   -0.708480    0.000000
   16          1             0        1.242030    2.490280    0.000000
   17          1             0        3.378350    1.245590    0.000000
   18          1             0        3.378340   -1.245590    0.000000
   19          6             0       -2.433600   -0.708480    4.000000
   20          6             0       -1.244780   -1.402580    4.000000
   21          6             0       -0.000002   -0.716892    4.000000
   22          6             0        0.000002    0.716891    4.000000
   23          6             0       -1.244760    1.402570    4.000000
   24          6             0       -2.433600    0.708481    4.000000
   25          1             0        1.242040   -2.490270    4.000000
   26          1             0       -3.378340   -1.245590    4.000000
   27          1             0       -1.242040   -2.490280    4.000000
   28          6             0        1.244760   -1.402580    4.000000
   29          6             0        1.244780    1.402580    4.000000
   30          1             0       -1.242040    2.490270    4.000000
   31          1             0       -3.378330    1.245590    4.000000
   32          6             0        2.433600    0.708481    4.000000
   33          6             0        2.433590   -0.708480    4.000000
   34          1             0        1.242030    2.490280    4.000000
   35          1             0        3.378350    1.245590    4.000000
   36          1             0        3.378340   -1.245590    4.000000
 ---------------------------------------------------------------------

 SCF Done:  E(RHF) =  -123.354366951     A.U. after   11 cycles

 Excitation energies and oscillator strengths:

 Excited state symmetry could not be determined.
 Excited State   1:   Singlet-?Sym    3.8935 eV  318.44 nm  f=0.0000
      45 -> 50        -0.27312
      46 -> 49        -0.36904
      47 -> 52         0.31857
      48 -> 51         0.41839
 This state for optimization and/or second-order correction.
 Copying the excited state density for this state as the 1-particle RhoCI density.

 Excited state symmetry could not be determined.
 Excited State   2:   Singlet-?Sym    3.9242 eV  315.95 nm  f=0.0052
      45 -> 49        -0.30769
      46 -> 50        -0.34950
      47 -> 51         0.34338
      48 -> 52         0.39037

 Excited state symmetry could not be determined.
 Excited State   3:   Singlet-?Sym    4.0853 eV  303.49 nm  f=0.0000
      45 -> 52         0.13080
      46 -> 51         0.16637
      47 -> 50         0.34054
      48 -> 49         0.57131

 Alpha  occ. eigenvalues --   -1.66873  -1.65231  -1.50587  -1.49324  -1.30304
 Alpha  occ. eigenvalues --   -1.29217  -1.19890  -1.19033  -1.14596  -1.13808
 Alpha  occ. eigenvalues --   -0.98717  -0.98176  -0.97164  -0.96591  -0.95651
 Alpha  occ. eigenvalues --   -0.95213  -0.81827  -0.81441  -0.73978  -0.73739
 Alpha  occ. eigenvalues --   -0.71370  -0.71081  -0.61718  -0.61458  -0.61318
 Alpha  occ. eigenvalues --   -0.61160  -0.55348  -0.55192  -0.54929  -0.54902
 Alpha  occ. eigenvalues --   -0.54835  -0.53549  -0.53387  -0.51391  -0.49064
 Alpha  occ. eigenvalues --   -0.48942  -0.44586  -0.43867  -0.43866  -0.43797
 Alpha  occ. eigenvalues --   -0.43762  -0.42102  -0.38407  -0.36509  -0.32618
 Alpha  occ. eigenvalues --   -0.31122  -0.29873  -0.28568
 Alpha virt. eigenvalues --   -0.00796  -0.00181   0.01449   0.01935   0.05070
 Alpha virt. eigenvalues --    0.05475   0.08233   0.08522   0.09572   0.09591
 Alpha virt. eigenvalues --    0.12473   0.12491   0.12533   0.12685   0.13002

 Mulliken atomic charges:
              1
     1  C   -0.034594
     2  C   -0.037121
     3  C    0.015599
     4  C    0.015599
     5  C   -0.037119
     6  C   -0.034599
     7  H    0.031685
     8  H    0.032232
     9  H    0.031683
    10  C   -0.037120
    11  C   -0.037120
    12  H    0.031681
    13  H    0.032235
    14  C   -0.034594
    15  C   -0.034596
    16  H    0.031683
    17  H    0.032232
    18  H    0.032231
    19  C   -0.034594
    20  C   -0.037121
    21  C    0.015599
    22  C    0.015599
    23  C   -0.037119
    24  C   -0.034599
    25  H    0.031685
    26  H    0.032232
    27  H    0.031683
    28  C   -0.037120
    29  C   -0.037120
    30  H    0.031681
    31  H    0.032235
    32  C   -0.034594
    33  C   -0.034596
    34  H    0.031683
    35  H    0.032232
    36  H    0.032231
 Sum of Mulliken charges=   0.00000

 Dipole moment (field-independent basis, Debye):
    X=     0.0009    Y=     0.0003    Z=  -590.1107  Tot=   590.1107
 Quadrupole moment (field-independent basis, Debye-Ang):
   XX= -1240.2118   YY=  -646.2208   ZZ= -2555.7383
   XY=    -0.0017   XZ=     0.0018   YZ=     0.0007

 Normal termination of Gaussian 03 at Wed Oct 10 10:14:56 2007.
