 Gaussian 03, Revision B.05,
 Gaussian 03:  x86_64-Linux-G03RevB.05  8-Nov-2003

 -----------------------------------
 # zindo punch=mo iop(3/33=1) nosymm
 -----------------------------------

 04/10/07: Geometry from napthalene_b3lyp_of.log and reorientated to pu
 t long axi geometric centre on origin.
 ----------------------------------------------------------------------
 Symbolic Z-matrix:
 Charge =  0 Multiplicity = 1

                          Input orientation:
 ---------------------------------------------------------------------
 Center     Atomic     Atomic              Coordinates (Angstroms)
 Number     Number      Type              X           Y           Z
 ---------------------------------------------------------------------
    1          6             0       -2.433600   -0.708480    0.000000
    2          6             0       -1.244780   -1.402580    0.000000
    3          6             0       -0.000002   -0.716892    0.000000
    4          6             0        0.000002    0.716891    0.000000
    5          6             0       -1.244760    1.402570    0.000000
    6          6             0       -2.433600    0.708481    0.000000
    7          1             0        1.242040   -2.490270    0.000000
    8          1             0       -3.378340   -1.245590    0.000000
    9          1             0       -1.242040   -2.490280    0.000000
   10          6             0        1.244760   -1.402580    0.000000
   11          6             0        1.244780    1.402580    0.000000
   12          1             0       -1.242040    2.490270    0.000000
   13          1             0       -3.378330    1.245590    0.000000
   14          6             0        2.433600    0.708481    0.000000
   15          6             0        2.433590   -0.708480    0.000000
   16          1             0        1.242030    2.490280    0.000000
   17          1             0        3.378350    1.245590    0.000000
   18          1             0        3.378340   -1.245590    0.000000
   19          6             0       -2.433600   -0.708480    5.500000
   20          6             0       -1.244780   -1.402580    5.500000
   21          6             0       -0.000002   -0.716892    5.500000
   22          6             0        0.000002    0.716891    5.500000
   23          6             0       -1.244760    1.402570    5.500000
   24          6             0       -2.433600    0.708481    5.500000
   25          1             0        1.242040   -2.490270    5.500000
   26          1             0       -3.378340   -1.245590    5.500000
   27          1             0       -1.242040   -2.490280    5.500000
   28          6             0        1.244760   -1.402580    5.500000
   29          6             0        1.244780    1.402580    5.500000
   30          1             0       -1.242040    2.490270    5.500000
   31          1             0       -3.378330    1.245590    5.500000
   32          6             0        2.433600    0.708481    5.500000
   33          6             0        2.433590   -0.708480    5.500000
   34          1             0        1.242030    2.490280    5.500000
   35          1             0        3.378350    1.245590    5.500000
   36          1             0        3.378340   -1.245590    5.500000
 ---------------------------------------------------------------------

 SCF Done:  E(RHF) =  -123.354302977     A.U. after   11 cycles

 Excitation energies and oscillator strengths:

 Excited state symmetry could not be determined.
 Excited State   1:   Singlet-?Sym    3.9310 eV  315.40 nm  f=0.0000
      45 -> 50        -0.32309
      46 -> 49        -0.32512
      47 -> 52         0.37113
      48 -> 51         0.37318
 This state for optimization and/or second-order correction.
 Copying the excited state density for this state as the 1-particle RhoCI density.

 Excited state symmetry could not be determined.
 Excited State   2:   Singlet-?Sym    3.9318 eV  315.34 nm  f=0.0061
      45 -> 49        -0.32744
      46 -> 50        -0.32841
      47 -> 51         0.36828
      48 -> 52         0.36934

 Excited state symmetry could not be determined.
 Excited State   3:   Singlet-?Sym    4.1649 eV  297.69 nm  f=0.0000
      45 -> 52         0.16564
      46 -> 51         0.16650
      47 -> 50         0.46206
      48 -> 49         0.46639

 Alpha  occ. eigenvalues --   -1.66109  -1.66061  -1.50007  -1.49971  -1.29813
 Alpha  occ. eigenvalues --   -1.29780  -1.19510  -1.19486  -1.14249  -1.14226
 Alpha  occ. eigenvalues --   -0.98492  -0.98476  -0.96924  -0.96906  -0.95476
 Alpha  occ. eigenvalues --   -0.95465  -0.81676  -0.81664  -0.73900  -0.73894
 Alpha  occ. eigenvalues --   -0.71265  -0.71257  -0.61628  -0.61619  -0.61281
 Alpha  occ. eigenvalues --   -0.61277  -0.55309  -0.55304  -0.54923  -0.54921
 Alpha  occ. eigenvalues --   -0.53505  -0.53500  -0.53256  -0.53145  -0.49040
 Alpha  occ. eigenvalues --   -0.49036  -0.43872  -0.43870  -0.43855  -0.43851
 Alpha  occ. eigenvalues --   -0.43427  -0.43353  -0.37532  -0.37478  -0.31936
 Alpha  occ. eigenvalues --   -0.31896  -0.29279  -0.29245
 Alpha virt. eigenvalues --   -0.00536  -0.00521   0.01643   0.01654   0.05225
 Alpha virt. eigenvalues --    0.05234   0.08336   0.08341   0.09541   0.09541
 Alpha virt. eigenvalues --    0.12446   0.12447   0.12564   0.12567   0.12971

 Mulliken atomic charges:
              1
     1  C   -0.034712
     2  C   -0.037273
     3  C    0.015141
     4  C    0.015141
     5  C   -0.037270
     6  C   -0.034717
     7  H    0.031938
     8  H    0.032478
     9  H    0.031936
    10  C   -0.037271
    11  C   -0.037271
    12  H    0.031934
    13  H    0.032481
    14  C   -0.034712
    15  C   -0.034715
    16  H    0.031936
    17  H    0.032478
    18  H    0.032477
    19  C   -0.034712
    20  C   -0.037273
    21  C    0.015141
    22  C    0.015141
    23  C   -0.037270
    24  C   -0.034717
    25  H    0.031938
    26  H    0.032478
    27  H    0.031936
    28  C   -0.037271
    29  C   -0.037271
    30  H    0.031934
    31  H    0.032481
    32  C   -0.034712
    33  C   -0.034715
    34  H    0.031936
    35  H    0.032478
    36  H    0.032477
 Sum of Mulliken charges=   0.00000

 Dipole moment (field-independent basis, Debye):
    X=     0.0009    Y=     0.0003    Z=  -811.3967  Tot=   811.3967
 Quadrupole moment (field-independent basis, Debye-Ang):
   XX= -1240.1345   YY=  -646.1743   ZZ= -4657.9821
   XY=    -0.0017   XZ=     0.0024   YZ=     0.0009

 Normal termination of Gaussian 03 at Wed Oct 10 10:15:04 2007.
