 Gaussian 03, Revision B.05,
 Gaussian 03:  x86_64-Linux-G03RevB.05  8-Nov-2003

 -----------------------------------
 # zindo punch=mo iop(3/33=1) nosymm
 -----------------------------------

 04/10/07: Geometry from napthalene_b3lyp_of.log and reorientated to pu
 t long axi geometric centre on origin.
 ----------------------------------------------------------------------
 Symbolic Z-matrix:
 Charge =  0 Multiplicity = 1

                          Input orientation:
 ---------------------------------------------------------------------
 Center     Atomic     Atomic              Coordinates (Angstroms)
 Number     Number      Type              X           Y           Z
 ---------------------------------------------------------------------
    1          6             0       -2.433600   -0.708480    0.000000
    2          6             0       -1.244780   -1.402580    0.000000
    3          6             0       -0.000002   -0.716892    0.000000
    4          6             0        0.000002    0.716891    0.000000
    5          6             0       -1.244760    1.402570    0.000000
    6          6             0       -2.433600    0.708481    0.000000
    7          1             0        1.242040   -2.490270    0.000000
    8          1             0       -3.378340   -1.245590    0.000000
    9          1             0       -1.242040   -2.490280    0.000000
   10          6             0        1.244760   -1.402580    0.000000
   11          6             0        1.244780    1.402580    0.000000
   12          1             0       -1.242040    2.490270    0.000000
   13          1             0       -3.378330    1.245590    0.000000
   14          6             0        2.433600    0.708481    0.000000
   15          6             0        2.433590   -0.708480    0.000000
   16          1             0        1.242030    2.490280    0.000000
   17          1             0        3.378350    1.245590    0.000000
   18          1             0        3.378340   -1.245590    0.000000
   19          6             0       -2.433600   -0.708480    5.000000
   20          6             0       -1.244780   -1.402580    5.000000
   21          6             0       -0.000002   -0.716892    5.000000
   22          6             0        0.000002    0.716891    5.000000
   23          6             0       -1.244760    1.402570    5.000000
   24          6             0       -2.433600    0.708481    5.000000
   25          1             0        1.242040   -2.490270    5.000000
   26          1             0       -3.378340   -1.245590    5.000000
   27          1             0       -1.242040   -2.490280    5.000000
   28          6             0        1.244760   -1.402580    5.000000
   29          6             0        1.244780    1.402580    5.000000
   30          1             0       -1.242040    2.490270    5.000000
   31          1             0       -3.378330    1.245590    5.000000
   32          6             0        2.433600    0.708481    5.000000
   33          6             0        2.433590   -0.708480    5.000000
   34          1             0        1.242030    2.490280    5.000000
   35          1             0        3.378350    1.245590    5.000000
   36          1             0        3.378340   -1.245590    5.000000
 ---------------------------------------------------------------------

 SCF Done:  E(RHF) =  -123.354291920     A.U. after   11 cycles

 Excitation energies and oscillator strengths:

 Excited state symmetry could not be determined.
 Excited State   1:   Singlet-?Sym    3.9307 eV  315.42 nm  f=0.0000
      45 -> 50        -0.31972
      46 -> 49        -0.32766
      47 -> 52         0.36843
      48 -> 51         0.37652
 This state for optimization and/or second-order correction.
 Copying the excited state density for this state as the 1-particle RhoCI density.

 Excited state symmetry could not be determined.
 Excited State   2:   Singlet-?Sym    3.9318 eV  315.34 nm  f=0.0059
      45 -> 49        -0.32642
      46 -> 50        -0.33011
      47 -> 51         0.36647
      48 -> 52         0.37054

 Excited state symmetry could not be determined.
 Excited State   3:   Singlet-?Sym    4.1603 eV  298.02 nm  f=0.0000
      45 -> 52         0.16201
      46 -> 51         0.16529
      47 -> 50         0.45617
      48 -> 49         0.47388

 Alpha  occ. eigenvalues --   -1.66157  -1.65990  -1.50041  -1.49916  -1.29841
 Alpha  occ. eigenvalues --   -1.29729  -1.19530  -1.19445  -1.14266  -1.14188
 Alpha  occ. eigenvalues --   -0.98500  -0.98447  -0.96935  -0.96875  -0.95479
 Alpha  occ. eigenvalues --   -0.95440  -0.81680  -0.81641  -0.73897  -0.73876
 Alpha  occ. eigenvalues --   -0.71265  -0.71237  -0.61628  -0.61600  -0.61276
 Alpha  occ. eigenvalues --   -0.61261  -0.55305  -0.55288  -0.54915  -0.54908
 Alpha  occ. eigenvalues --   -0.53502  -0.53485  -0.53381  -0.52997  -0.49035
 Alpha  occ. eigenvalues --   -0.49023  -0.43864  -0.43857  -0.43848  -0.43837
 Alpha  occ. eigenvalues --   -0.43510  -0.43249  -0.37590  -0.37398  -0.31977
 Alpha  occ. eigenvalues --   -0.31832  -0.29314  -0.29189
 Alpha virt. eigenvalues --   -0.00545  -0.00491   0.01639   0.01681   0.05223
 Alpha virt. eigenvalues --    0.05258   0.08337   0.08360   0.09551   0.09553
 Alpha virt. eigenvalues --    0.12455   0.12457   0.12572   0.12583   0.12981

 Mulliken atomic charges:
              1
     1  C   -0.034693
     2  C   -0.037234
     3  C    0.015259
     4  C    0.015259
     5  C   -0.037232
     6  C   -0.034697
     7  H    0.031880
     8  H    0.032419
     9  H    0.031879
    10  C   -0.037233
    11  C   -0.037233
    12  H    0.031876
    13  H    0.032422
    14  C   -0.034693
    15  C   -0.034695
    16  H    0.031879
    17  H    0.032419
    18  H    0.032418
    19  C   -0.034693
    20  C   -0.037234
    21  C    0.015259
    22  C    0.015259
    23  C   -0.037232
    24  C   -0.034697
    25  H    0.031880
    26  H    0.032419
    27  H    0.031879
    28  C   -0.037233
    29  C   -0.037233
    30  H    0.031876
    31  H    0.032422
    32  C   -0.034693
    33  C   -0.034695
    34  H    0.031879
    35  H    0.032419
    36  H    0.032418
 Sum of Mulliken charges=   0.00000

 Dipole moment (field-independent basis, Debye):
    X=     0.0009    Y=     0.0003    Z=  -737.6341  Tot=   737.6341
 Quadrupole moment (field-independent basis, Debye-Ang):
   XX= -1240.1535   YY=  -646.1843   ZZ= -3883.4712
   XY=    -0.0017   XZ=     0.0022   YZ=     0.0008

 Normal termination of Gaussian 03 at Wed Oct 10 10:15:08 2007.
