 Gaussian 03, Revision B.05,
 Gaussian 03:  x86_64-Linux-G03RevB.05  8-Nov-2003

 -----------------------------------
 # zindo punch=mo iop(3/33=1) nosymm
 -----------------------------------

 04/10/07: Geometry from napthalene_b3lyp_of.log and reorientated to pu
 t long axi geometric centre on origin.
 ----------------------------------------------------------------------
 Symbolic Z-matrix:
 Charge =  0 Multiplicity = 1

                          Input orientation:
 ---------------------------------------------------------------------
 Center     Atomic     Atomic              Coordinates (Angstroms)
 Number     Number      Type              X           Y           Z
 ---------------------------------------------------------------------
    1          6             0       -2.433600   -0.708480    0.000000
    2          6             0       -1.244780   -1.402580    0.000000
    3          6             0       -0.000002   -0.716892    0.000000
    4          6             0        0.000002    0.716891    0.000000
    5          6             0       -1.244760    1.402570    0.000000
    6          6             0       -2.433600    0.708481    0.000000
    7          1             0        1.242040   -2.490270    0.000000
    8          1             0       -3.378340   -1.245590    0.000000
    9          1             0       -1.242040   -2.490280    0.000000
   10          6             0        1.244760   -1.402580    0.000000
   11          6             0        1.244780    1.402580    0.000000
   12          1             0       -1.242040    2.490270    0.000000
   13          1             0       -3.378330    1.245590    0.000000
   14          6             0        2.433600    0.708481    0.000000
   15          6             0        2.433590   -0.708480    0.000000
   16          1             0        1.242030    2.490280    0.000000
   17          1             0        3.378350    1.245590    0.000000
   18          1             0        3.378340   -1.245590    0.000000
   19          6             0       -2.433600   -0.708480    6.500000
   20          6             0       -1.244780   -1.402580    6.500000
   21          6             0       -0.000002   -0.716892    6.500000
   22          6             0        0.000002    0.716891    6.500000
   23          6             0       -1.244760    1.402570    6.500000
   24          6             0       -2.433600    0.708481    6.500000
   25          1             0        1.242040   -2.490270    6.500000
   26          1             0       -3.378340   -1.245590    6.500000
   27          1             0       -1.242040   -2.490280    6.500000
   28          6             0        1.244760   -1.402580    6.500000
   29          6             0        1.244780    1.402580    6.500000
   30          1             0       -1.242040    2.490270    6.500000
   31          1             0       -3.378330    1.245590    6.500000
   32          6             0        2.433600    0.708481    6.500000
   33          6             0        2.433590   -0.708480    6.500000
   34          1             0        1.242030    2.490280    6.500000
   35          1             0        3.378350    1.245590    6.500000
   36          1             0        3.378340   -1.245590    6.500000
 ---------------------------------------------------------------------

 SCF Done:  E(RHF) =  -123.354318362     A.U. after   11 cycles

 Excitation energies and oscillator strengths:

 Excited state symmetry could not be determined.
 Excited State   1:   Singlet-?Sym    3.9311 eV  315.39 nm  f=0.0000
      45 -> 50        -0.32463
      46 -> 49        -0.32474
      47 -> 52         0.37160
      48 -> 51         0.37171
 This state for optimization and/or second-order correction.
 Copying the excited state density for this state as the 1-particle RhoCI density.

 Excited state symmetry could not be determined.
 Excited State   2:   Singlet-?Sym    3.9317 eV  315.35 nm  f=0.0065
      45 -> 49        -0.32739
      46 -> 50        -0.32745
      47 -> 51         0.36923
      48 -> 52         0.36929

 Excited state symmetry could not be determined.
 Excited State   3:   Singlet-?Sym    4.1705 eV  297.29 nm  f=0.0000
      45 -> 52         0.16928
      46 -> 51         0.16932
      47 -> 50         0.46293
      48 -> 49         0.46315

 Alpha  occ. eigenvalues --   -1.66103  -1.66100  -1.50006  -1.50004  -1.29813
 Alpha  occ. eigenvalues --   -1.29811  -1.19515  -1.19513  -1.14253  -1.14252
 Alpha  occ. eigenvalues --   -0.98500  -0.98498  -0.96932  -0.96930  -0.95486
 Alpha  occ. eigenvalues --   -0.95485  -0.81685  -0.81684  -0.73912  -0.73912
 Alpha  occ. eigenvalues --   -0.71276  -0.71275  -0.61639  -0.61638  -0.61295
 Alpha  occ. eigenvalues --   -0.61295  -0.55321  -0.55321  -0.54938  -0.54938
 Alpha  occ. eigenvalues --   -0.53517  -0.53516  -0.53221  -0.53214  -0.49053
 Alpha  occ. eigenvalues --   -0.49052  -0.43887  -0.43886  -0.43869  -0.43868
 Alpha  occ. eigenvalues --   -0.43408  -0.43403  -0.37523  -0.37520  -0.31934
 Alpha  occ. eigenvalues --   -0.31932  -0.29279  -0.29277
 Alpha virt. eigenvalues --   -0.00545  -0.00544   0.01632   0.01632   0.05213
 Alpha virt. eigenvalues --    0.05213   0.08323   0.08323   0.09525   0.09525
 Alpha virt. eigenvalues --    0.12432   0.12432   0.12549   0.12549   0.12956

 Mulliken atomic charges:
              1
     1  C   -0.034729
     2  C   -0.037325
     3  C    0.014985
     4  C    0.014985
     5  C   -0.037323
     6  C   -0.034733
     7  H    0.032007
     8  H    0.032555
     9  H    0.032006
    10  C   -0.037323
    11  C   -0.037324
    12  H    0.032004
    13  H    0.032558
    14  C   -0.034729
    15  C   -0.034731
    16  H    0.032006
    17  H    0.032555
    18  H    0.032554
    19  C   -0.034729
    20  C   -0.037325
    21  C    0.014985
    22  C    0.014985
    23  C   -0.037323
    24  C   -0.034733
    25  H    0.032007
    26  H    0.032555
    27  H    0.032006
    28  C   -0.037323
    29  C   -0.037324
    30  H    0.032004
    31  H    0.032558
    32  C   -0.034729
    33  C   -0.034731
    34  H    0.032006
    35  H    0.032555
    36  H    0.032554
 Sum of Mulliken charges=   0.00000

 Dipole moment (field-independent basis, Debye):
    X=     0.0009    Y=     0.0003    Z=  -958.9220  Tot=   958.9220
 Quadrupole moment (field-independent basis, Debye-Ang):
   XX= -1240.1086   YY=  -646.1625   ZZ= -6428.2934
   XY=    -0.0017   XZ=     0.0028   YZ=     0.0011

 Normal termination of Gaussian 03 at Wed Oct 10 10:15:15 2007.
