 Gaussian 03, Revision B.05,
 Gaussian 03:  x86_64-Linux-G03RevB.05  8-Nov-2003

 -----------------------------------
 # zindo punch=mo iop(3/33=1) nosymm
 -----------------------------------

 04/10/07: Geometry from napthalene_b3lyp_of.log and reorientated to pu
 t long axi geometric centre on origin.
 ----------------------------------------------------------------------
 Symbolic Z-matrix:
 Charge =  0 Multiplicity = 1

                          Input orientation:
 ---------------------------------------------------------------------
 Center     Atomic     Atomic              Coordinates (Angstroms)
 Number     Number      Type              X           Y           Z
 ---------------------------------------------------------------------
    1          6             0       -2.433600   -0.708480    0.000000
    2          6             0       -1.244780   -1.402580    0.000000
    3          6             0       -0.000002   -0.716892    0.000000
    4          6             0        0.000002    0.716891    0.000000
    5          6             0       -1.244760    1.402570    0.000000
    6          6             0       -2.433600    0.708481    0.000000
    7          1             0        1.242040   -2.490270    0.000000
    8          1             0       -3.378340   -1.245590    0.000000
    9          1             0       -1.242040   -2.490280    0.000000
   10          6             0        1.244760   -1.402580    0.000000
   11          6             0        1.244780    1.402580    0.000000
   12          1             0       -1.242040    2.490270    0.000000
   13          1             0       -3.378330    1.245590    0.000000
   14          6             0        2.433600    0.708481    0.000000
   15          6             0        2.433590   -0.708480    0.000000
   16          1             0        1.242030    2.490280    0.000000
   17          1             0        3.378350    1.245590    0.000000
   18          1             0        3.378340   -1.245590    0.000000
   19          6             0       -2.433600   -0.708480    6.000000
   20          6             0       -1.244780   -1.402580    6.000000
   21          6             0       -0.000002   -0.716892    6.000000
   22          6             0        0.000002    0.716891    6.000000
   23          6             0       -1.244760    1.402570    6.000000
   24          6             0       -2.433600    0.708481    6.000000
   25          1             0        1.242040   -2.490270    6.000000
   26          1             0       -3.378340   -1.245590    6.000000
   27          1             0       -1.242040   -2.490280    6.000000
   28          6             0        1.244760   -1.402580    6.000000
   29          6             0        1.244780    1.402580    6.000000
   30          1             0       -1.242040    2.490270    6.000000
   31          1             0       -3.378330    1.245590    6.000000
   32          6             0        2.433600    0.708481    6.000000
   33          6             0        2.433590   -0.708480    6.000000
   34          1             0        1.242030    2.490280    6.000000
   35          1             0        3.378350    1.245590    6.000000
   36          1             0        3.378340   -1.245590    6.000000
 ---------------------------------------------------------------------

 SCF Done:  E(RHF) =  -123.354311833     A.U. after   11 cycles

 Excitation energies and oscillator strengths:

 Excited state symmetry could not be determined.
 Excited State   1:   Singlet-?Sym    3.9311 eV  315.39 nm  f=0.0000
      45 -> 50        -0.32418
      46 -> 49        -0.32467
      47 -> 52         0.37164
      48 -> 51         0.37212
 This state for optimization and/or second-order correction.
 Copying the excited state density for this state as the 1-particle RhoCI density.

 Excited state symmetry could not be determined.
 Excited State   2:   Singlet-?Sym    3.9317 eV  315.34 nm  f=0.0064
      45 -> 49        -0.32753
      46 -> 50        -0.32777
      47 -> 51         0.36893
      48 -> 52         0.36919

 Excited state symmetry could not be determined.
 Excited State   3:   Singlet-?Sym    4.1681 eV  297.46 nm  f=0.0000
      45 -> 52         0.16779
      46 -> 51         0.16799
      47 -> 50         0.46306
      48 -> 49         0.46406

 Alpha  occ. eigenvalues --   -1.66100  -1.66087  -1.50003  -1.49993  -1.29810
 Alpha  occ. eigenvalues --   -1.29800  -1.19510  -1.19503  -1.14249  -1.14243
 Alpha  occ. eigenvalues --   -0.98494  -0.98490  -0.96927  -0.96921  -0.95480
 Alpha  occ. eigenvalues --   -0.95477  -0.81680  -0.81676  -0.73906  -0.73904
 Alpha  occ. eigenvalues --   -0.71270  -0.71268  -0.61633  -0.61630  -0.61288
 Alpha  occ. eigenvalues --   -0.61287  -0.55315  -0.55314  -0.54931  -0.54931
 Alpha  occ. eigenvalues --   -0.53511  -0.53509  -0.53225  -0.53195  -0.49047
 Alpha  occ. eigenvalues --   -0.49046  -0.43880  -0.43879  -0.43862  -0.43861
 Alpha  occ. eigenvalues --   -0.43408  -0.43389  -0.37521  -0.37507  -0.31930
 Alpha  occ. eigenvalues --   -0.31920  -0.29275  -0.29266
 Alpha virt. eigenvalues --   -0.00539  -0.00536   0.01638   0.01641   0.05219
 Alpha virt. eigenvalues --    0.05222   0.08329   0.08331   0.09532   0.09532
 Alpha virt. eigenvalues --    0.12439   0.12439   0.12556   0.12557   0.12963

 Mulliken atomic charges:
              1
     1  C   -0.034723
     2  C   -0.037302
     3  C    0.015052
     4  C    0.015052
     5  C   -0.037300
     6  C   -0.034728
     7  H    0.031978
     8  H    0.032522
     9  H    0.031977
    10  C   -0.037301
    11  C   -0.037301
    12  H    0.031975
    13  H    0.032525
    14  C   -0.034723
    15  C   -0.034725
    16  H    0.031977
    17  H    0.032522
    18  H    0.032521
    19  C   -0.034723
    20  C   -0.037302
    21  C    0.015052
    22  C    0.015052
    23  C   -0.037300
    24  C   -0.034728
    25  H    0.031978
    26  H    0.032522
    27  H    0.031977
    28  C   -0.037301
    29  C   -0.037301
    30  H    0.031975
    31  H    0.032525
    32  C   -0.034723
    33  C   -0.034725
    34  H    0.031977
    35  H    0.032522
    36  H    0.032521
 Sum of Mulliken charges=   0.00000

 Dipole moment (field-independent basis, Debye):
    X=     0.0009    Y=     0.0003    Z=  -885.1593  Tot=   885.1593
 Quadrupole moment (field-independent basis, Debye-Ang):
   XX= -1240.1199   YY=  -646.1674   ZZ= -5506.2562
   XY=    -0.0017   XZ=     0.0026   YZ=     0.0010

 Normal termination of Gaussian 03 at Wed Oct 10 10:15:20 2007.
