 Gaussian 03, Revision B.05,
 Gaussian 03:  x86_64-Linux-G03RevB.05  8-Nov-2003

 -----------------------------------
 # zindo punch=mo iop(3/33=1) nosymm
 -----------------------------------

 04/10/07: Geometry from napthalene_b3lyp_of.log and reorientated to pu
 t long axi geometric centre on origin.
 ----------------------------------------------------------------------
 Symbolic Z-matrix:
 Charge =  0 Multiplicity = 1

                          Input orientation:
 ---------------------------------------------------------------------
 Center     Atomic     Atomic              Coordinates (Angstroms)
 Number     Number      Type              X           Y           Z
 ---------------------------------------------------------------------
    1          6             0       -2.433600   -0.708480    0.000000
    2          6             0       -1.244780   -1.402580    0.000000
    3          6             0       -0.000002   -0.716892    0.000000
    4          6             0        0.000002    0.716891    0.000000
    5          6             0       -1.244760    1.402570    0.000000
    6          6             0       -2.433600    0.708481    0.000000
    7          1             0        1.242040   -2.490270    0.000000
    8          1             0       -3.378340   -1.245590    0.000000
    9          1             0       -1.242040   -2.490280    0.000000
   10          6             0        1.244760   -1.402580    0.000000
   11          6             0        1.244780    1.402580    0.000000
   12          1             0       -1.242040    2.490270    0.000000
   13          1             0       -3.378330    1.245590    0.000000
   14          6             0        2.433600    0.708481    0.000000
   15          6             0        2.433590   -0.708480    0.000000
   16          1             0        1.242030    2.490280    0.000000
   17          1             0        3.378350    1.245590    0.000000
   18          1             0        3.378340   -1.245590    0.000000
   19          6             0       -2.433600   -0.708480    7.000000
   20          6             0       -1.244780   -1.402580    7.000000
   21          6             0       -0.000002   -0.716892    7.000000
   22          6             0        0.000002    0.716891    7.000000
   23          6             0       -1.244760    1.402570    7.000000
   24          6             0       -2.433600    0.708481    7.000000
   25          1             0        1.242040   -2.490270    7.000000
   26          1             0       -3.378340   -1.245590    7.000000
   27          1             0       -1.242040   -2.490280    7.000000
   28          6             0        1.244760   -1.402580    7.000000
   29          6             0        1.244780    1.402580    7.000000
   30          1             0       -1.242040    2.490270    7.000000
   31          1             0       -3.378330    1.245590    7.000000
   32          6             0        2.433600    0.708481    7.000000
   33          6             0        2.433590   -0.708480    7.000000
   34          1             0        1.242030    2.490280    7.000000
   35          1             0        3.378350    1.245590    7.000000
   36          1             0        3.378340   -1.245590    7.000000
 ---------------------------------------------------------------------

 SCF Done:  E(RHF) =  -123.354323144     A.U. after   11 cycles

 Excitation energies and oscillator strengths:

 Excited state symmetry could not be determined.
 Excited State   1:   Singlet-?Sym    3.9312 eV  315.39 nm  f=0.0000
      45 -> 50        -0.32488
      46 -> 49        -0.32490
      47 -> 52         0.37147
      48 -> 51         0.37149
 This state for optimization and/or second-order correction.
 Copying the excited state density for this state as the 1-particle RhoCI density.

 Excited state symmetry could not be determined.
 Excited State   2:   Singlet-?Sym    3.9316 eV  315.35 nm  f=0.0067
      45 -> 49        -0.32722
      46 -> 50        -0.32723
      47 -> 51         0.36942
      48 -> 52         0.36944

 Excited state symmetry could not be determined.
 Excited State   3:   Singlet-?Sym    4.1724 eV  297.15 nm  f=0.0000
      45 -> 52         0.17041
      46 -> 51         0.17042
      47 -> 50         0.46260
      48 -> 49         0.46264

 Alpha  occ. eigenvalues --   -1.66108  -1.66107  -1.50011  -1.50011  -1.29819
 Alpha  occ. eigenvalues --   -1.29818  -1.19520  -1.19519  -1.14259  -1.14258
 Alpha  occ. eigenvalues --   -0.98505  -0.98505  -0.96937  -0.96937  -0.95492
 Alpha  occ. eigenvalues --   -0.95491  -0.81691  -0.81690  -0.73918  -0.73918
 Alpha  occ. eigenvalues --   -0.71281  -0.71281  -0.61644  -0.61644  -0.61301
 Alpha  occ. eigenvalues --   -0.61301  -0.55327  -0.55327  -0.54944  -0.54944
 Alpha  occ. eigenvalues --   -0.53522  -0.53522  -0.53225  -0.53223  -0.49058
 Alpha  occ. eigenvalues --   -0.49058  -0.43892  -0.43892  -0.43874  -0.43874
 Alpha  occ. eigenvalues --   -0.43411  -0.43410  -0.37528  -0.37527  -0.31939
 Alpha  occ. eigenvalues --   -0.31939  -0.29284  -0.29284
 Alpha virt. eigenvalues --   -0.00550  -0.00550   0.01626   0.01626   0.05207
 Alpha virt. eigenvalues --    0.05207   0.08317   0.08317   0.09519   0.09519
 Alpha virt. eigenvalues --    0.12427   0.12427   0.12542   0.12542   0.12950

 Mulliken atomic charges:
              1
     1  C   -0.034731
     2  C   -0.037343
     3  C    0.014935
     4  C    0.014935
     5  C   -0.037340
     6  C   -0.034736
     7  H    0.032028
     8  H    0.032580
     9  H    0.032027
    10  C   -0.037341
    11  C   -0.037341
    12  H    0.032025
    13  H    0.032583
    14  C   -0.034731
    15  C   -0.034734
    16  H    0.032027
    17  H    0.032580
    18  H    0.032579
    19  C   -0.034731
    20  C   -0.037343
    21  C    0.014935
    22  C    0.014935
    23  C   -0.037340
    24  C   -0.034736
    25  H    0.032028
    26  H    0.032580
    27  H    0.032027
    28  C   -0.037341
    29  C   -0.037341
    30  H    0.032025
    31  H    0.032583
    32  C   -0.034731
    33  C   -0.034734
    34  H    0.032027
    35  H    0.032580
    36  H    0.032579
 Sum of Mulliken charges=   0.00000

 Dipole moment (field-independent basis, Debye):
    X=     0.0009    Y=     0.0003    Z= -1032.6848  Tot=  1032.6848
 Quadrupole moment (field-independent basis, Debye-Ang):
   XX= -1240.0999   YY=  -646.1591   ZZ= -7424.0939
   XY=    -0.0017   XZ=     0.0031   YZ=     0.0012

 Normal termination of Gaussian 03 at Wed Oct 10 10:15:25 2007.
